ITEM: TIMESTEP
0
ITEM: NUMBER OF ATOMS
32000
ITEM: BOX BOUNDS pp pp pp
0.0000000000000000e+00 3.3591923827650149e+01
0.0000000000000000e+00 3.3591923827650149e+01
0.0000000000000000e+00 3.3591923827650149e+01
ITEM: ATOMS id x y z 
1 0 0 0 
2 0.839798 0.839798 0 
3 0.839798 0 0.839798 
4 0 0.839798 0.839798 
5 1.6796 0 0 
6 2.51939 0.839798 0 
7 2.51939 0 0.839798 
8 1.6796 0.839798 0.839798 
81 0 1.6796 0 
82 0.839798 2.51939 0 
83 0.839798 1.6796 0.839798 
84 0 2.51939 0.839798 
85 1.6796 1.6796 0 
86 2.51939 2.51939 0 
87 2.51939 1.6796 0.839798 
88 1.6796 2.51939 0.839798 
1601 0 0 1.6796 
1602 0.839798 0.839798 1.6796 
1603 0.839798 0 2.51939 
1604 0 0.839798 2.51939 
1605 1.6796 0 1.6796 
1606 2.51939 0.839798 1.6796 
1607 2.51939 0 2.51939 
1608 1.6796 0.839798 2.51939 
1681 0 1.6796 1.6796 
1682 0.839798 2.51939 1.6796 
1683 0.839798 1.6796 2.51939 
1684 0 2.51939 2.51939 
1685 1.6796 1.6796 1.6796 
1686 2.51939 2.51939 1.6796 
1687 2.51939 1.6796 2.51939 
1688 1.6796 2.51939 2.51939 
9 3.35919 0 0 
10 4.19899 0.839798 0 
11 4.19899 0 0.839798 
12 3.35919 0.839798 0.839798 
13 5.03879 0 0 
16 5.03879 0.839798 0.839798 
89 3.35919 1.6796 0 
90 4.19899 2.51939 0 
91 4.19899 1.6796 0.839798 
92 3.35919 2.51939 0.839798 
93 5.03879 1.6796 0 
96 5.03879 2.51939 0.839798 
1609 3.35919 0 1.6796 
1610 4.19899 0.839798 1.6796 
1611 4.19899 0 2.51939 
1612 3.35919 0.839798 2.51939 
1613 5.03879 0 1.6796 
1616 5.03879 0.839798 2.51939 
1689 3.35919 1.6796 1.6796 
1690 4.19899 2.51939 1.6796 
1691 4.19899 1.6796 2.51939 
1692 3.35919 2.51939 2.51939 
1693 5.03879 1.6796 1.6796 
1696 5.03879 2.51939 2.51939 
14 5.87859 0.839798 0 
15 5.87859 0 0.839798 
17 6.71838 0 0 
18 7.55818 0.839798 0 
19 7.55818 0 0.839798 
20 6.71838 0.839798 0.839798 
94 5.87859 2.51939 0 
95 5.87859 1.6796 0.839798 
97 6.71838 1.6796 0 
98 7.55818 2.51939 0 
99 7.55818 1.6796 0.839798 
100 6.71838 2.51939 0.839798 
1614 5.87859 0.839798 1.6796 
1615 5.87859 0 2.51939 
1617 6.71838 0 1.6796 
1618 7.55818 0.839798 1.6796 
1619 7.55818 0 2.51939 
1620 6.71838 0.839798 2.51939 
1694 5.87859 2.51939 1.6796 
1695 5.87859 1.6796 2.51939 
1697 6.71838 1.6796 1.6796 
1698 7.55818 2.51939 1.6796 
1699 7.55818 1.6796 2.51939 
1700 6.71838 2.51939 2.51939 
21 8.39798 0 0 
22 9.23778 0.839798 0 
23 9.23778 0 0.839798 
24 8.39798 0.839798 0.839798 
25 10.0776 0 0 
26 10.9174 0.839798 0 
27 10.9174 0 0.839798 
28 10.0776 0.839798 0.839798 
101 8.39798 1.6796 0 
102 9.23778 2.51939 0 
103 9.23778 1.6796 0.839798 
104 8.39798 2.51939 0.839798 
105 10.0776 1.6796 0 
106 10.9174 2.51939 0 
107 10.9174 1.6796 0.839798 
108 10.0776 2.51939 0.839798 
1621 8.39798 0 1.6796 
1622 9.23778 0.839798 1.6796 
1623 9.23778 0 2.51939 
1624 8.39798 0.839798 2.51939 
1625 10.0776 0 1.6796 
1626 10.9174 0.839798 1.6796 
1627 10.9174 0 2.51939 
1628 10.0776 0.839798 2.51939 
1701 8.39798 1.6796 1.6796 
1702 9.23778 2.51939 1.6796 
1703 9.23778 1.6796 2.51939 
1704 8.39798 2.51939 2.51939 
1705 10.0776 1.6796 1.6796 
1706 10.9174 2.51939 1.6796 
1707 10.9174 1.6796 2.51939 
1708 10.0776 2.51939 2.51939 
29 11.7572 0 0 
30 12.597 0.839798 0 
31 12.597 0 0.839798 
32 11.7572 0.839798 0.839798 
33 13.4368 0 0 
36 13.4368 0.839798 0.839798 
109 11.7572 1.6796 0 
110 12.597 2.51939 0 
111 12.597 1.6796 0.839798 
112 11.7572 2.51939 0.839798 
113 13.4368 1.6796 0 
116 13.4368 2.51939 0.839798 
1629 11.7572 0 1.6796 
1630 12.597 0.839798 1.6796 
1631 12.597 0 2.51939 
1632 11.7572 0.839798 2.51939 
1633 13.4368 0 1.6796 
1636 13.4368 0.839798 2.51939 
1709 11.7572 1.6796 1.6796 
1710 12.597 2.51939 1.6796 
1711 12.597 1.6796 2.51939 
1712 11.7572 2.51939 2.51939 
1713 13.4368 1.6796 1.6796 
1716 13.4368 2.51939 2.51939 
34 14.2766 0.839798 0 
35 14.2766 0 0.839798 
37 15.1164 0 0 
38 15.9562 0.839798 0 
39 15.9562 0 0.839798 
40 15.1164 0.839798 0.839798 
114 14.2766 2.51939 0 
115 14.2766 1.6796 0.839798 
117 15.1164 1.6796 0 
118 15.9562 2.51939 0 
119 15.9562 1.6796 0.839798 
120 15.1164 2.51939 0.839798 
1634 14.2766 0.839798 1.6796 
1635 14.2766 0 2.51939 
1637 15.1164 0 1.6796 
1638 15.9562 0.839798 1.6796 
1639 15.9562 0 2.51939 
1640 15.1164 0.839798 2.51939 
1714 14.2766 2.51939 1.6796 
1715 14.2766 1.6796 2.51939 
1717 15.1164 1.6796 1.6796 
1718 15.9562 2.51939 1.6796 
1719 15.9562 1.6796 2.51939 
1720 15.1164 2.51939 2.51939 
41 16.796 0 0 
42 17.6358 0.839798 0 
43 17.6358 0 0.839798 
44 16.796 0.839798 0.839798 
45 18.4756 0 0 
46 19.3154 0.839798 0 
47 19.3154 0 0.839798 
48 18.4756 0.839798 0.839798 
121 16.796 1.6796 0 
122 17.6358 2.51939 0 
123 17.6358 1.6796 0.839798 
124 16.796 2.51939 0.839798 
125 18.4756 1.6796 0 
126 19.3154 2.51939 0 
127 19.3154 1.6796 0.839798 
128 18.4756 2.51939 0.839798 
1641 16.796 0 1.6796 
1642 17.6358 0.839798 1.6796 
1643 17.6358 0 2.51939 
1644 16.796 0.839798 2.51939 
1645 18.4756 0 1.6796 
1646 19.3154 0.839798 1.6796 
1647 19.3154 0 2.51939 
1648 18.4756 0.839798 2.51939 
1721 16.796 1.6796 1.6796 
1722 17.6358 2.51939 1.6796 
1723 17.6358 1.6796 2.51939 
1724 16.796 2.51939 2.51939 
1725 18.4756 1.6796 1.6796 
1726 19.3154 2.51939 1.6796 
1727 19.3154 1.6796 2.51939 
1728 18.4756 2.51939 2.51939 
49 20.1552 0 0 
50 20.995 0.839798 0 
51 20.995 0 0.839798 
52 20.1552 0.839798 0.839798 
53 21.8348 0 0 
56 21.8348 0.839798 0.839798 
129 20.1552 1.6796 0 
130 20.995 2.51939 0 
131 20.995 1.6796 0.839798 
132 20.1552 2.51939 0.839798 
133 21.8348 1.6796 0 
136 21.8348 2.51939 0.839798 
1649 20.1552 0 1.6796 
1650 20.995 0.839798 1.6796 
1651 20.995 0 2.51939 
1652 20.1552 0.839798 2.51939 
1653 21.8348 0 1.6796 
1656 21.8348 0.839798 2.51939 
1729 20.1552 1.6796 1.6796 
1730 20.995 2.51939 1.6796 
1731 20.995 1.6796 2.51939 
1732 20.1552 2.51939 2.51939 
1733 21.8348 1.6796 1.6796 
1736 21.8348 2.51939 2.51939 
54 22.6745 0.839798 0 
55 22.6745 0 0.839798 
57 23.5143 0 0 
58 24.3541 0.839798 0 
59 24.3541 0 0.839798 
60 23.5143 0.839798 0.839798 
61 25.1939 0 0 
64 25.1939 0.839798 0.839798 
134 22.6745 2.51939 0 
135 22.6745 1.6796 0.839798 
137 23.5143 1.6796 0 
138 24.3541 2.51939 0 
139 24.3541 1.6796 0.839798 
140 23.5143 2.51939 0.839798 
141 25.1939 1.6796 0 
144 25.1939 2.51939 0.839798 
1654 22.6745 0.839798 1.6796 
1655 22.6745 0 2.51939 
1657 23.5143 0 1.6796 
1658 24.3541 0.839798 1.6796 
1659 24.3541 0 2.51939 
1660 23.5143 0.839798 2.51939 
1661 25.1939 0 1.6796 
1664 25.1939 0.839798 2.51939 
1734 22.6745 2.51939 1.6796 
1735 22.6745 1.6796 2.51939 
1737 23.5143 1.6796 1.6796 
1738 24.3541 2.51939 1.6796 
1739 24.3541 1.6796 2.51939 
1740 23.5143 2.51939 2.51939 
1741 25.1939 1.6796 1.6796 
1744 25.1939 2.51939 2.51939 
62 26.0337 0.839798 0 
63 26.0337 0 0.839798 
65 26.8735 0 0 
66 27.7133 0.839798 0 
67 27.7133 0 0.839798 
68 26.8735 0.839798 0.839798 
142 26.0337 2.51939 0 
143 26.0337 1.6796 0.839798 
145 26.8735 1.6796 0 
146 27.7133 2.51939 0 
147 27.7133 1.6796 0.839798 
148 26.8735 2.51939 0.839798 
1662 26.0337 0.839798 1.6796 
1663 26.0337 0 2.51939 
1665 26.8735 0 1.6796 
1666 27.7133 0.839798 1.6796 
1667 27.7133 0 2.51939 
1668 26.8735 0.839798 2.51939 
1742 26.0337 2.51939 1.6796 
1743 26.0337 1.6796 2.51939 
1745 26.8735 1.6796 1.6796 
1746 27.7133 2.51939 1.6796 
1747 27.7133 1.6796 2.51939 
1748 26.8735 2.51939 2.51939 
69 28.5531 0 0 
70 29.3929 0.839798 0 
71 29.3929 0 0.839798 
72 28.5531 0.839798 0.839798 
73 30.2327 0 0 
76 30.2327 0.839798 0.839798 
149 28.5531 1.6796 0 
150 29.3929 2.51939 0 
151 29.3929 1.6796 0.839798 
152 28.5531 2.51939 0.839798 
153 30.2327 1.6796 0 
156 30.2327 2.51939 0.839798 
1669 28.5531 0 1.6796 
1670 29.3929 0.839798 1.6796 
1671 29.3929 0 2.51939 
1672 28.5531 0.839798 2.51939 
1673 30.2327 0 1.6796 
1676 30.2327 0.839798 2.51939 
1749 28.5531 1.6796 1.6796 
1750 29.3929 2.51939 1.6796 
1751 29.3929 1.6796 2.51939 
1752 28.5531 2.51939 2.51939 
1753 30.2327 1.6796 1.6796 
1756 30.2327 2.51939 2.51939 
74 31.0725 0.839798 0 
75 31.0725 0 0.839798 
77 31.9123 0 0 
78 32.7521 0.839798 0 
79 32.7521 0 0.839798 
80 31.9123 0.839798 0.839798 
154 31.0725 2.51939 0 
155 31.0725 1.6796 0.839798 
157 31.9123 1.6796 0 
158 32.7521 2.51939 0 
159 32.7521 1.6796 0.839798 
160 31.9123 2.51939 0.839798 
1674 31.0725 0.839798 1.6796 
1675 31.0725 0 2.51939 
1677 31.9123 0 1.6796 
1678 32.7521 0.839798 1.6796 
1679 32.7521 0 2.51939 
1680 31.9123 0.839798 2.51939 
1754 31.0725 2.51939 1.6796 
1755 31.0725 1.6796 2.51939 
1757 31.9123 1.6796 1.6796 
1758 32.7521 2.51939 1.6796 
1759 32.7521 1.6796 2.51939 
1760 31.9123 2.51939 2.51939 
161 0 3.35919 0 
162 0.839798 4.19899 0 
163 0.839798 3.35919 0.839798 
164 0 4.19899 0.839798 
165 1.6796 3.35919 0 
166 2.51939 4.19899 0 
167 2.51939 3.35919 0.839798 
168 1.6796 4.19899 0.839798 
241 0 5.03879 0 
243 0.839798 5.03879 0.839798 
245 1.6796 5.03879 0 
247 2.51939 5.03879 0.839798 
1761 0 3.35919 1.6796 
1762 0.839798 4.19899 1.6796 
1763 0.839798 3.35919 2.51939 
1764 0 4.19899 2.51939 
1765 1.6796 3.35919 1.6796 
1766 2.51939 4.19899 1.6796 
1767 2.51939 3.35919 2.51939 
1768 1.6796 4.19899 2.51939 
1841 0 5.03879 1.6796 
1843 0.839798 5.03879 2.51939 
1845 1.6796 5.03879 1.6796 
1847 2.51939 5.03879 2.51939 
169 3.35919 3.35919 0 
170 4.19899 4.19899 0 
171 4.19899 3.35919 0.839798 
172 3.35919 4.19899 0.839798 
173 5.03879 3.35919 0 
176 5.03879 4.19899 0.839798 
249 3.35919 5.03879 0 
251 4.19899 5.03879 0.839798 
253 5.03879 5.03879 0 
1769 3.35919 3.35919 1.6796 
1770 4.19899 4.19899 1.6796 
1771 4.19899 3.35919 2.51939 
1772 3.35919 4.19899 2.51939 
1773 5.03879 3.35919 1.6796 
1776 5.03879 4.19899 2.51939 
1849 3.35919 5.03879 1.6796 
1851 4.19899 5.03879 2.51939 
1853 5.03879 5.03879 1.6796 
174 5.87859 4.19899 0 
175 5.87859 3.35919 0.839798 
177 6.71838 3.35919 0 
178 7.55818 4.19899 0 
179 7.55818 3.35919 0.839798 
180 6.71838 4.19899 0.839798 
255 5.87859 5.03879 0.839798 
257 6.71838 5.03879 0 
259 7.55818 5.03879 0.839798 
1774 5.87859 4.19899 1.6796 
1775 5.87859 3.35919 2.51939 
1777 6.71838 3.35919 1.6796 
1778 7.55818 4.19899 1.6796 
1779 7.55818 3.35919 2.51939 
1780 6.71838 4.19899 2.51939 
1855 5.87859 5.03879 2.51939 
1857 6.71838 5.03879 1.6796 
1859 7.55818 5.03879 2.51939 
181 8.39798 3.35919 0 
182 9.23778 4.19899 0 
183 9.23778 3.35919 0.839798 
184 8.39798 4.19899 0.839798 
185 10.0776 3.35919 0 
186 10.9174 4.19899 0 
187 10.9174 3.35919 0.839798 
188 10.0776 4.19899 0.839798 
261 8.39798 5.03879 0 
263 9.23778 5.03879 0.839798 
265 10.0776 5.03879 0 
267 10.9174 5.03879 0.839798 
1781 8.39798 3.35919 1.6796 
1782 9.23778 4.19899 1.6796 
1783 9.23778 3.35919 2.51939 
1784 8.39798 4.19899 2.51939 
1785 10.0776 3.35919 1.6796 
1786 10.9174 4.19899 1.6796 
1787 10.9174 3.35919 2.51939 
1788 10.0776 4.19899 2.51939 
1861 8.39798 5.03879 1.6796 
1863 9.23778 5.03879 2.51939 
1865 10.0776 5.03879 1.6796 
1867 10.9174 5.03879 2.51939 
189 11.7572 3.35919 0 
190 12.597 4.19899 0 
191 12.597 3.35919 0.839798 
192 11.7572 4.19899 0.839798 
193 13.4368 3.35919 0 
196 13.4368 4.19899 0.839798 
269 11.7572 5.03879 0 
271 12.597 5.03879 0.839798 
273 13.4368 5.03879 0 
1789 11.7572 3.35919 1.6796 
1790 12.597 4.19899 1.6796 
1791 12.597 3.35919 2.51939 
1792 11.7572 4.19899 2.51939 
1793 13.4368 3.35919 1.6796 
1796 13.4368 4.19899 2.51939 
1869 11.7572 5.03879 1.6796 
1871 12.597 5.03879 2.51939 
1873 13.4368 5.03879 1.6796 
194 14.2766 4.19899 0 
195 14.2766 3.35919 0.839798 
197 15.1164 3.35919 0 
198 15.9562 4.19899 0 
199 15.9562 3.35919 0.839798 
200 15.1164 4.19899 0.839798 
275 14.2766 5.03879 0.839798 
277 15.1164 5.03879 0 
279 15.9562 5.03879 0.839798 
1794 14.2766 4.19899 1.6796 
1795 14.2766 3.35919 2.51939 
1797 15.1164 3.35919 1.6796 
1798 15.9562 4.19899 1.6796 
1799 15.9562 3.35919 2.51939 
1800 15.1164 4.19899 2.51939 
1875 14.2766 5.03879 2.51939 
1877 15.1164 5.03879 1.6796 
1879 15.9562 5.03879 2.51939 
201 16.796 3.35919 0 
202 17.6358 4.19899 0 
203 17.6358 3.35919 0.839798 
204 16.796 4.19899 0.839798 
205 18.4756 3.35919 0 
206 19.3154 4.19899 0 
207 19.3154 3.35919 0.839798 
208 18.4756 4.19899 0.839798 
281 16.796 5.03879 0 
283 17.6358 5.03879 0.839798 
285 18.4756 5.03879 0 
287 19.3154 5.03879 0.839798 
1801 16.796 3.35919 1.6796 
1802 17.6358 4.19899 1.6796 
1803 17.6358 3.35919 2.51939 
1804 16.796 4.19899 2.51939 
1805 18.4756 3.35919 1.6796 
1806 19.3154 4.19899 1.6796 
1807 19.3154 3.35919 2.51939 
1808 18.4756 4.19899 2.51939 
1881 16.796 5.03879 1.6796 
1883 17.6358 5.03879 2.51939 
1885 18.4756 5.03879 1.6796 
1887 19.3154 5.03879 2.51939 
209 20.1552 3.35919 0 
210 20.995 4.19899 0 
211 20.995 3.35919 0.839798 
212 20.1552 4.19899 0.839798 
213 21.8348 3.35919 0 
216 21.8348 4.19899 0.839798 
289 20.1552 5.03879 0 
291 20.995 5.03879 0.839798 
293 21.8348 5.03879 0 
1809 20.1552 3.35919 1.6796 
1810 20.995 4.19899 1.6796 
1811 20.995 3.35919 2.51939 
1812 20.1552 4.19899 2.51939 
1813 21.8348 3.35919 1.6796 
1816 21.8348 4.19899 2.51939 
1889 20.1552 5.03879 1.6796 
1891 20.995 5.03879 2.51939 
1893 21.8348 5.03879 1.6796 
214 22.6745 4.19899 0 
215 22.6745 3.35919 0.839798 
217 23.5143 3.35919 0 
218 24.3541 4.19899 0 
219 24.3541 3.35919 0.839798 
220 23.5143 4.19899 0.839798 
221 25.1939 3.35919 0 
224 25.1939 4.19899 0.839798 
295 22.6745 5.03879 0.839798 
297 23.5143 5.03879 0 
299 24.3541 5.03879 0.839798 
301 25.1939 5.03879 0 
1814 22.6745 4.19899 1.6796 
1815 22.6745 3.35919 2.51939 
1817 23.5143 3.35919 1.6796 
1818 24.3541 4.19899 1.6796 
1819 24.3541 3.35919 2.51939 
1820 23.5143 4.19899 2.51939 
1821 25.1939 3.35919 1.6796 
1824 25.1939 4.19899 2.51939 
1895 22.6745 5.03879 2.51939 
1897 23.5143 5.03879 1.6796 
1899 24.3541 5.03879 2.51939 
1901 25.1939 5.03879 1.6796 
222 26.0337 4.19899 0 
223 26.0337 3.35919 0.839798 
225 26.8735 3.35919 0 
226 27.7133 4.19899 0 
227 27.7133 3.35919 0.839798 
228 26.8735 4.19899 0.839798 
303 26.0337 5.03879 0.839798 
305 26.8735 5.03879 0 
307 27.7133 5.03879 0.839798 
1822 26.0337 4.19899 1.6796 
1823 26.0337 3.35919 2.51939 
1825 26.8735 3.35919 1.6796 
1826 27.7133 4.19899 1.6796 
1827 27.7133 3.35919 2.51939 
1828 26.8735 4.19899 2.51939 
1903 26.0337 5.03879 2.51939 
1905 26.8735 5.03879 1.6796 
1907 27.7133 5.03879 2.51939 
229 28.5531 3.35919 0 
230 29.3929 4.19899 0 
231 29.3929 3.35919 0.839798 
232 28.5531 4.19899 0.839798 
233 30.2327 3.35919 0 
236 30.2327 4.19899 0.839798 
309 28.5531 5.03879 0 
311 29.3929 5.03879 0.839798 
313 30.2327 5.03879 0 
1829 28.5531 3.35919 1.6796 
1830 29.3929 4.19899 1.6796 
1831 29.3929 3.35919 2.51939 
1832 28.5531 4.19899 2.51939 
1833 30.2327 3.35919 1.6796 
1836 30.2327 4.19899 2.51939 
1909 28.5531 5.03879 1.6796 
1911 29.3929 5.03879 2.51939 
1913 30.2327 5.03879 1.6796 
234 31.0725 4.19899 0 
235 31.0725 3.35919 0.839798 
237 31.9123 3.35919 0 
238 32.7521 4.19899 0 
239 32.7521 3.35919 0.839798 
240 31.9123 4.19899 0.839798 
315 31.0725 5.03879 0.839798 
317 31.9123 5.03879 0 
319 32.7521 5.03879 0.839798 
1834 31.0725 4.19899 1.6796 
1835 31.0725 3.35919 2.51939 
1837 31.9123 3.35919 1.6796 
1838 32.7521 4.19899 1.6796 
1839 32.7521 3.35919 2.51939 
1840 31.9123 4.19899 2.51939 
1915 31.0725 5.03879 2.51939 
1917 31.9123 5.03879 1.6796 
1919 32.7521 5.03879 2.51939 
242 0.839798 5.87859 0 
244 0 5.87859 0.839798 
246 2.51939 5.87859 0 
248 1.6796 5.87859 0.839798 
321 0 6.71838 0 
322 0.839798 7.55818 0 
323 0.839798 6.71838 0.839798 
324 0 7.55818 0.839798 
325 1.6796 6.71838 0 
326 2.51939 7.55818 0 
327 2.51939 6.71838 0.839798 
328 1.6796 7.55818 0.839798 
1842 0.839798 5.87859 1.6796 
1844 0 5.87859 2.51939 
1846 2.51939 5.87859 1.6796 
1848 1.6796 5.87859 2.51939 
1921 0 6.71838 1.6796 
1922 0.839798 7.55818 1.6796 
1923 0.839798 6.71838 2.51939 
1924 0 7.55818 2.51939 
1925 1.6796 6.71838 1.6796 
1926 2.51939 7.55818 1.6796 
1927 2.51939 6.71838 2.51939 
1928 1.6796 7.55818 2.51939 
250 4.19899 5.87859 0 
252 3.35919 5.87859 0.839798 
256 5.03879 5.87859 0.839798 
329 3.35919 6.71838 0 
330 4.19899 7.55818 0 
331 4.19899 6.71838 0.839798 
332 3.35919 7.55818 0.839798 
333 5.03879 6.71838 0 
336 5.03879 7.55818 0.839798 
1850 4.19899 5.87859 1.6796 
1852 3.35919 5.87859 2.51939 
1856 5.03879 5.87859 2.51939 
1929 3.35919 6.71838 1.6796 
1930 4.19899 7.55818 1.6796 
1931 4.19899 6.71838 2.51939 
1932 3.35919 7.55818 2.51939 
1933 5.03879 6.71838 1.6796 
1936 5.03879 7.55818 2.51939 
254 5.87859 5.87859 0 
258 7.55818 5.87859 0 
260 6.71838 5.87859 0.839798 
334 5.87859 7.55818 0 
335 5.87859 6.71838 0.839798 
337 6.71838 6.71838 0 
338 7.55818 7.55818 0 
339 7.55818 6.71838 0.839798 
340 6.71838 7.55818 0.839798 
1854 5.87859 5.87859 1.6796 
1858 7.55818 5.87859 1.6796 
1860 6.71838 5.87859 2.51939 
1934 5.87859 7.55818 1.6796 
1935 5.87859 6.71838 2.51939 
1937 6.71838 6.71838 1.6796 
1938 7.55818 7.55818 1.6796 
1939 7.55818 6.71838 2.51939 
1940 6.71838 7.55818 2.51939 
262 9.23778 5.87859 0 
264 8.39798 5.87859 0.839798 
266 10.9174 5.87859 0 
268 10.0776 5.87859 0.839798 
341 8.39798 6.71838 0 
342 9.23778 7.55818 0 
343 9.23778 6.71838 0.839798 
344 8.39798 7.55818 0.839798 
345 10.0776 6.71838 0 
346 10.9174 7.55818 0 
347 10.9174 6.71838 0.839798 
348 10.0776 7.55818 0.839798 
1862 9.23778 5.87859 1.6796 
1864 8.39798 5.87859 2.51939 
1866 10.9174 5.87859 1.6796 
1868 10.0776 5.87859 2.51939 
1941 8.39798 6.71838 1.6796 
1942 9.23778 7.55818 1.6796 
1943 9.23778 6.71838 2.51939 
1944 8.39798 7.55818 2.51939 
1945 10.0776 6.71838 1.6796 
1946 10.9174 7.55818 1.6796 
1947 10.9174 6.71838 2.51939 
1948 10.0776 7.55818 2.51939 
270 12.597 5.87859 0 
272 11.7572 5.87859 0.839798 
276 13.4368 5.87859 0.839798 
349 11.7572 6.71838 0 
350 12.597 7.55818 0 
351 12.597 6.71838 0.839798 
352 11.7572 7.55818 0.839798 
353 13.4368 6.71838 0 
356 13.4368 7.55818 0.839798 
1870 12.597 5.87859 1.6796 
1872 11.7572 5.87859 2.51939 
1876 13.4368 5.87859 2.51939 
1949 11.7572 6.71838 1.6796 
1950 12.597 7.55818 1.6796 
1951 12.597 6.71838 2.51939 
1952 11.7572 7.55818 2.51939 
1953 13.4368 6.71838 1.6796 
1956 13.4368 7.55818 2.51939 
274 14.2766 5.87859 0 
278 15.9562 5.87859 0 
280 15.1164 5.87859 0.839798 
354 14.2766 7.55818 0 
355 14.2766 6.71838 0.839798 
357 15.1164 6.71838 0 
358 15.9562 7.55818 0 
359 15.9562 6.71838 0.839798 
360 15.1164 7.55818 0.839798 
1874 14.2766 5.87859 1.6796 
1878 15.9562 5.87859 1.6796 
1880 15.1164 5.87859 2.51939 
1954 14.2766 7.55818 1.6796 
1955 14.2766 6.71838 2.51939 
1957 15.1164 6.71838 1.6796 
1958 15.9562 7.55818 1.6796 
1959 15.9562 6.71838 2.51939 
1960 15.1164 7.55818 2.51939 
282 17.6358 5.87859 0 
284 16.796 5.87859 0.839798 
286 19.3154 5.87859 0 
288 18.4756 5.87859 0.839798 
361 16.796 6.71838 0 
362 17.6358 7.55818 0 
363 17.6358 6.71838 0.839798 
364 16.796 7.55818 0.839798 
365 18.4756 6.71838 0 
366 19.3154 7.55818 0 
367 19.3154 6.71838 0.839798 
368 18.4756 7.55818 0.839798 
1882 17.6358 5.87859 1.6796 
1884 16.796 5.87859 2.51939 
1886 19.3154 5.87859 1.6796 
1888 18.4756 5.87859 2.51939 
1961 16.796 6.71838 1.6796 
1962 17.6358 7.55818 1.6796 
1963 17.6358 6.71838 2.51939 
1964 16.796 7.55818 2.51939 
1965 18.4756 6.71838 1.6796 
1966 19.3154 7.55818 1.6796 
1967 19.3154 6.71838 2.51939 
1968 18.4756 7.55818 2.51939 
290 20.995 5.87859 0 
292 20.1552 5.87859 0.839798 
296 21.8348 5.87859 0.839798 
369 20.1552 6.71838 0 
370 20.995 7.55818 0 
371 20.995 6.71838 0.839798 
372 20.1552 7.55818 0.839798 
373 21.8348 6.71838 0 
376 21.8348 7.55818 0.839798 
1890 20.995 5.87859 1.6796 
1892 20.1552 5.87859 2.51939 
1896 21.8348 5.87859 2.51939 
1969 20.1552 6.71838 1.6796 
1970 20.995 7.55818 1.6796 
1971 20.995 6.71838 2.51939 
1972 20.1552 7.55818 2.51939 
1973 21.8348 6.71838 1.6796 
1976 21.8348 7.55818 2.51939 
294 22.6745 5.87859 0 
298 24.3541 5.87859 0 
300 23.5143 5.87859 0.839798 
304 25.1939 5.87859 0.839798 
374 22.6745 7.55818 0 
375 22.6745 6.71838 0.839798 
377 23.5143 6.71838 0 
378 24.3541 7.55818 0 
379 24.3541 6.71838 0.839798 
380 23.5143 7.55818 0.839798 
381 25.1939 6.71838 0 
384 25.1939 7.55818 0.839798 
1894 22.6745 5.87859 1.6796 
1898 24.3541 5.87859 1.6796 
1900 23.5143 5.87859 2.51939 
1904 25.1939 5.87859 2.51939 
1974 22.6745 7.55818 1.6796 
1975 22.6745 6.71838 2.51939 
1977 23.5143 6.71838 1.6796 
1978 24.3541 7.55818 1.6796 
1979 24.3541 6.71838 2.51939 
1980 23.5143 7.55818 2.51939 
1981 25.1939 6.71838 1.6796 
1984 25.1939 7.55818 2.51939 
302 26.0337 5.87859 0 
306 27.7133 5.87859 0 
308 26.8735 5.87859 0.839798 
382 26.0337 7.55818 0 
383 26.0337 6.71838 0.839798 
385 26.8735 6.71838 0 
386 27.7133 7.55818 0 
387 27.7133 6.71838 0.839798 
388 26.8735 7.55818 0.839798 
1902 26.0337 5.87859 1.6796 
1906 27.7133 5.87859 1.6796 
1908 26.8735 5.87859 2.51939 
1982 26.0337 7.55818 1.6796 
1983 26.0337 6.71838 2.51939 
1985 26.8735 6.71838 1.6796 
1986 27.7133 7.55818 1.6796 
1987 27.7133 6.71838 2.51939 
1988 26.8735 7.55818 2.51939 
310 29.3929 5.87859 0 
312 28.5531 5.87859 0.839798 
316 30.2327 5.87859 0.839798 
389 28.5531 6.71838 0 
390 29.3929 7.55818 0 
391 29.3929 6.71838 0.839798 
392 28.5531 7.55818 0.839798 
393 30.2327 6.71838 0 
396 30.2327 7.55818 0.839798 
1910 29.3929 5.87859 1.6796 
1912 28.5531 5.87859 2.51939 
1916 30.2327 5.87859 2.51939 
1989 28.5531 6.71838 1.6796 
1990 29.3929 7.55818 1.6796 
1991 29.3929 6.71838 2.51939 
1992 28.5531 7.55818 2.51939 
1993 30.2327 6.71838 1.6796 
1996 30.2327 7.55818 2.51939 
314 31.0725 5.87859 0 
318 32.7521 5.87859 0 
320 31.9123 5.87859 0.839798 
394 31.0725 7.55818 0 
395 31.0725 6.71838 0.839798 
397 31.9123 6.71838 0 
398 32.7521 7.55818 0 
399 32.7521 6.71838 0.839798 
400 31.9123 7.55818 0.839798 
1914 31.0725 5.87859 1.6796 
1918 32.7521 5.87859 1.6796 
1920 31.9123 5.87859 2.51939 
1994 31.0725 7.55818 1.6796 
1995 31.0725 6.71838 2.51939 
1997 31.9123 6.71838 1.6796 
1998 32.7521 7.55818 1.6796 
1999 32.7521 6.71838 2.51939 
2000 31.9123 7.55818 2.51939 
401 0 8.39798 0 
402 0.839798 9.23778 0 
403 0.839798 8.39798 0.839798 
404 0 9.23778 0.839798 
405 1.6796 8.39798 0 
406 2.51939 9.23778 0 
407 2.51939 8.39798 0.839798 
408 1.6796 9.23778 0.839798 
481 0 10.0776 0 
482 0.839798 10.9174 0 
483 0.839798 10.0776 0.839798 
484 0 10.9174 0.839798 
485 1.6796 10.0776 0 
486 2.51939 10.9174 0 
487 2.51939 10.0776 0.839798 
488 1.6796 10.9174 0.839798 
2001 0 8.39798 1.6796 
2002 0.839798 9.23778 1.6796 
2003 0.839798 8.39798 2.51939 
2004 0 9.23778 2.51939 
2005 1.6796 8.39798 1.6796 
2006 2.51939 9.23778 1.6796 
2007 2.51939 8.39798 2.51939 
2008 1.6796 9.23778 2.51939 
2081 0 10.0776 1.6796 
2082 0.839798 10.9174 1.6796 
2083 0.839798 10.0776 2.51939 
2084 0 10.9174 2.51939 
2085 1.6796 10.0776 1.6796 
2086 2.51939 10.9174 1.6796 
2087 2.51939 10.0776 2.51939 
2088 1.6796 10.9174 2.51939 
409 3.35919 8.39798 0 
410 4.19899 9.23778 0 
411 4.19899 8.39798 0.839798 
412 3.35919 9.23778 0.839798 
413 5.03879 8.39798 0 
416 5.03879 9.23778 0.839798 
489 3.35919 10.0776 0 
490 4.19899 10.9174 0 
491 4.19899 10.0776 0.839798 
492 3.35919 10.9174 0.839798 
493 5.03879 10.0776 0 
496 5.03879 10.9174 0.839798 
2009 3.35919 8.39798 1.6796 
2010 4.19899 9.23778 1.6796 
2011 4.19899 8.39798 2.51939 
2012 3.35919 9.23778 2.51939 
2013 5.03879 8.39798 1.6796 
2016 5.03879 9.23778 2.51939 
2089 3.35919 10.0776 1.6796 
2090 4.19899 10.9174 1.6796 
2091 4.19899 10.0776 2.51939 
2092 3.35919 10.9174 2.51939 
2093 5.03879 10.0776 1.6796 
2096 5.03879 10.9174 2.51939 
414 5.87859 9.23778 0 
415 5.87859 8.39798 0.839798 
417 6.71838 8.39798 0 
418 7.55818 9.23778 0 
419 7.55818 8.39798 0.839798 
420 6.71838 9.23778 0.839798 
494 5.87859 10.9174 0 
495 5.87859 10.0776 0.839798 
497 6.71838 10.0776 0 
498 7.55818 10.9174 0 
499 7.55818 10.0776 0.839798 
500 6.71838 10.9174 0.839798 
2014 5.87859 9.23778 1.6796 
2015 5.87859 8.39798 2.51939 
2017 6.71838 8.39798 1.6796 
2018 7.55818 9.23778 1.6796 
2019 7.55818 8.39798 2.51939 
2020 6.71838 9.23778 2.51939 
2094 5.87859 10.9174 1.6796 
2095 5.87859 10.0776 2.51939 
2097 6.71838 10.0776 1.6796 
2098 7.55818 10.9174 1.6796 
2099 7.55818 10.0776 2.51939 
2100 6.71838 10.9174 2.51939 
421 8.39798 8.39798 0 
422 9.23778 9.23778 0 
423 9.23778 8.39798 0.839798 
424 8.39798 9.23778 0.839798 
425 10.0776 8.39798 0 
426 10.9174 9.23778 0 
427 10.9174 8.39798 0.839798 
428 10.0776 9.23778 0.839798 
501 8.39798 10.0776 0 
502 9.23778 10.9174 0 
503 9.23778 10.0776 0.839798 
504 8.39798 10.9174 0.839798 
505 10.0776 10.0776 0 
506 10.9174 10.9174 0 
507 10.9174 10.0776 0.839798 
508 10.0776 10.9174 0.839798 
2021 8.39798 8.39798 1.6796 
2022 9.23778 9.23778 1.6796 
2023 9.23778 8.39798 2.51939 
2024 8.39798 9.23778 2.51939 
2025 10.0776 8.39798 1.6796 
2026 10.9174 9.23778 1.6796 
2027 10.9174 8.39798 2.51939 
2028 10.0776 9.23778 2.51939 
2101 8.39798 10.0776 1.6796 
2102 9.23778 10.9174 1.6796 
2103 9.23778 10.0776 2.51939 
2104 8.39798 10.9174 2.51939 
2105 10.0776 10.0776 1.6796 
2106 10.9174 10.9174 1.6796 
2107 10.9174 10.0776 2.51939 
2108 10.0776 10.9174 2.51939 
429 11.7572 8.39798 0 
430 12.597 9.23778 0 
431 12.597 8.39798 0.839798 
432 11.7572 9.23778 0.839798 
433 13.4368 8.39798 0 
436 13.4368 9.23778 0.839798 
509 11.7572 10.0776 0 
510 12.597 10.9174 0 
511 12.597 10.0776 0.839798 
512 11.7572 10.9174 0.839798 
513 13.4368 10.0776 0 
516 13.4368 10.9174 0.839798 
2029 11.7572 8.39798 1.6796 
2030 12.597 9.23778 1.6796 
2031 12.597 8.39798 2.51939 
2032 11.7572 9.23778 2.51939 
2033 13.4368 8.39798 1.6796 
2036 13.4368 9.23778 2.51939 
2109 11.7572 10.0776 1.6796 
2110 12.597 10.9174 1.6796 
2111 12.597 10.0776 2.51939 
2112 11.7572 10.9174 2.51939 
2113 13.4368 10.0776 1.6796 
2116 13.4368 10.9174 2.51939 
434 14.2766 9.23778 0 
435 14.2766 8.39798 0.839798 
437 15.1164 8.39798 0 
438 15.9562 9.23778 0 
439 15.9562 8.39798 0.839798 
440 15.1164 9.23778 0.839798 
514 14.2766 10.9174 0 
515 14.2766 10.0776 0.839798 
517 15.1164 10.0776 0 
518 15.9562 10.9174 0 
519 15.9562 10.0776 0.839798 
520 15.1164 10.9174 0.839798 
2034 14.2766 9.23778 1.6796 
2035 14.2766 8.39798 2.51939 
2037 15.1164 8.39798 1.6796 
2038 15.9562 9.23778 1.6796 
2039 15.9562 8.39798 2.51939 
2040 15.1164 9.23778 2.51939 
2114 14.2766 10.9174 1.6796 
2115 14.2766 10.0776 2.51939 
2117 15.1164 10.0776 1.6796 
2118 15.9562 10.9174 1.6796 
2119 15.9562 10.0776 2.51939 
2120 15.1164 10.9174 2.51939 
441 16.796 8.39798 0 
442 17.6358 9.23778 0 
443 17.6358 8.39798 0.839798 
444 16.796 9.23778 0.839798 
445 18.4756 8.39798 0 
446 19.3154 9.23778 0 
447 19.3154 8.39798 0.839798 
448 18.4756 9.23778 0.839798 
521 16.796 10.0776 0 
522 17.6358 10.9174 0 
523 17.6358 10.0776 0.839798 
524 16.796 10.9174 0.839798 
525 18.4756 10.0776 0 
526 19.3154 10.9174 0 
527 19.3154 10.0776 0.839798 
528 18.4756 10.9174 0.839798 
2041 16.796 8.39798 1.6796 
2042 17.6358 9.23778 1.6796 
2043 17.6358 8.39798 2.51939 
2044 16.796 9.23778 2.51939 
2045 18.4756 8.39798 1.6796 
2046 19.3154 9.23778 1.6796 
2047 19.3154 8.39798 2.51939 
2048 18.4756 9.23778 2.51939 
2121 16.796 10.0776 1.6796 
2122 17.6358 10.9174 1.6796 
2123 17.6358 10.0776 2.51939 
2124 16.796 10.9174 2.51939 
2125 18.4756 10.0776 1.6796 
2126 19.3154 10.9174 1.6796 
2127 19.3154 10.0776 2.51939 
2128 18.4756 10.9174 2.51939 
449 20.1552 8.39798 0 
450 20.995 9.23778 0 
451 20.995 8.39798 0.839798 
452 20.1552 9.23778 0.839798 
453 21.8348 8.39798 0 
456 21.8348 9.23778 0.839798 
529 20.1552 10.0776 0 
530 20.995 10.9174 0 
531 20.995 10.0776 0.839798 
532 20.1552 10.9174 0.839798 
533 21.8348 10.0776 0 
536 21.8348 10.9174 0.839798 
2049 20.1552 8.39798 1.6796 
2050 20.995 9.23778 1.6796 
2051 20.995 8.39798 2.51939 
2052 20.1552 9.23778 2.51939 
2053 21.8348 8.39798 1.6796 
2056 21.8348 9.23778 2.51939 
2129 20.1552 10.0776 1.6796 
2130 20.995 10.9174 1.6796 
2131 20.995 10.0776 2.51939 
2132 20.1552 10.9174 2.51939 
2133 21.8348 10.0776 1.6796 
2136 21.8348 10.9174 2.51939 
454 22.6745 9.23778 0 
455 22.6745 8.39798 0.839798 
457 23.5143 8.39798 0 
458 24.3541 9.23778 0 
459 24.3541 8.39798 0.839798 
460 23.5143 9.23778 0.839798 
461 25.1939 8.39798 0 
464 25.1939 9.23778 0.839798 
534 22.6745 10.9174 0 
535 22.6745 10.0776 0.839798 
537 23.5143 10.0776 0 
538 24.3541 10.9174 0 
539 24.3541 10.0776 0.839798 
540 23.5143 10.9174 0.839798 
541 25.1939 10.0776 0 
544 25.1939 10.9174 0.839798 
2054 22.6745 9.23778 1.6796 
2055 22.6745 8.39798 2.51939 
2057 23.5143 8.39798 1.6796 
2058 24.3541 9.23778 1.6796 
2059 24.3541 8.39798 2.51939 
2060 23.5143 9.23778 2.51939 
2061 25.1939 8.39798 1.6796 
2064 25.1939 9.23778 2.51939 
2134 22.6745 10.9174 1.6796 
2135 22.6745 10.0776 2.51939 
2137 23.5143 10.0776 1.6796 
2138 24.3541 10.9174 1.6796 
2139 24.3541 10.0776 2.51939 
2140 23.5143 10.9174 2.51939 
2141 25.1939 10.0776 1.6796 
2144 25.1939 10.9174 2.51939 
462 26.0337 9.23778 0 
463 26.0337 8.39798 0.839798 
465 26.8735 8.39798 0 
466 27.7133 9.23778 0 
467 27.7133 8.39798 0.839798 
468 26.8735 9.23778 0.839798 
542 26.0337 10.9174 0 